# vtk DataFile Version 2.0
SEM 2D data : nodes values
ASCII
DATASET STRUCTURED_GRID
DIMENSIONS 3345 3345 1
POINTS 3345 float
0.0 0.0 0.0
10.0 0.0 0.0
17.071067810058594 7.071067810058594 0.0
17.071067810058594 17.071067810058594 0.0
10.0 24.142135620117188 0.0
0.0 24.142135620117188 0.0
-7.071067810058594 17.071067810058594 0.0
-7.071067810058594 7.071067810058594 0.0
1.6666666269302368 0.0 0.0
3.3333332538604736 0.0 0.0
5.0 0.0 0.0
6.666666507720947 0.0 0.0
8.333333015441895 0.0 0.0
0.28778859972953796 0.0 0.0
0.8333333134651184 0.0 0.0
1.378878116607666 0.0 0.0
1.9544552564620972 0.0 0.0
2.5 0.0 0.0
3.0455446243286133 0.0 0.0
3.621121883392334 0.0 0.0
4.166666507720947 0.0 0.0
4.712211608886719 0.0 0.0
5.287788391113281 0.0 0.0
5.833333492279053 0.0 0.0
6.378878116607666 0.0 0.0
6.954455375671387 0.0 0.0
7.5 0.0 0.0
8.045544624328613 0.0 0.0
8.621122360229492 0.0 0.0
9.166666984558105 0.0 0.0
9.712211608886719 0.0 0.0
11.178511619567871 1.1785112619400024 0.0
12.357022285461426 2.357022523880005 0.0
13.535533905029297 3.535533905029297 0.0
14.714045524597168 4.71404504776001 0.0
15.892556190490723 5.892556667327881 0.0
10.203496932983398 0.2034972757101059 0.0
10.589255332946777 0.5892556309700012 0.0
10.975013732910156 0.9750140309333801 0.0
11.38200855255127 1.3820085525512695 0.0
11.767766952514648 1.7677669525146484 0.0
12.153525352478027 2.1535253524780273 0.0
12.56052017211914 2.5605199337005615 0.0
12.94627857208252 2.9462783336639404 0.0
13.332036972045898 3.3320367336273193 0.0
13.739030838012695 3.7390310764312744 0.0
14.124789237976074 4.124789714813232 0.0
14.510547637939453 4.510548114776611 0.0
14.917542457580566 4.917542457580566 0.0
15.303300857543945 5.303300857543945 0.0
15.689059257507324 5.689059257507324 0.0
16.096054077148438 6.096053600311279 0.0
16.4818115234375 6.481812000274658 0.0
16.867570877075195 6.867570400238037 0.0
17.071067810058594 8.7377347946167 0.0
17.071067810058594 10.404400825500488 0.0
17.071067810058594 12.071067810058594 0.0
17.071067810058594 13.7377347946167 0.0
17.071067810058594 15.404400825500488 0.0
17.071067810058594 7.358856201171875 0.0
17.071067810058594 7.9044013023376465 0.0
17.071067810058594 8.449945449829102 0.0
17.071067810058594 9.02552318572998 0.0
17.071067810058594 9.571067810058594 0.0
17.071067810058594 10.116612434387207 0.0
17.071067810058594 10.692190170288086 0.0
17.071067810058594 11.2377347946167 0.0
17.071067810058594 11.783279418945312 0.0
17.071067810058594 12.358856201171875 0.0
17.071067810058594 12.904400825500488 0.0
17.071067810058594 13.449945449829102 0.0
17.071067810058594 14.02552318572998 0.0
17.071067810058594 14.571067810058594 0.0
17.071067810058594 15.116612434387207 0.0
17.071067810058594 15.692190170288086 0.0
17.071067810058594 16.237733840942383 0.0
17.071067810058594 16.783279418945312 0.0
15.892556190490723 18.24957847595215 0.0
14.714045524597168 19.428091049194336 0.0
13.535533905029297 20.60660171508789 0.0
12.357022285461426 21.785112380981445 0.0
11.178511619567871 22.963624954223633 0.0
16.867570877075195 17.274564743041992 0.0
16.4818115234375 17.660324096679688 0.0
16.096054077148438 18.04608154296875 0.0
15.689059257507324 18.45307731628418 0.0
15.303300857543945 18.838834762573242 0.0
14.917542457580566 19.224592208862305 0.0
14.510547637939453 19.631587982177734 0.0
14.124789237976074 20.017345428466797 0.0
13.739030838012695 20.403104782104492 0.0
13.332036972045898 20.81009864807129 0.0
12.94627857208252 21.195858001708984 0.0
12.56052017211914 21.581615447998047 0.0
12.153525352478027 21.988611221313477 0.0
11.767766952514648 22.37436866760254 0.0
11.38200855255127 22.7601261138916 0.0
10.975013732910156 23.16712188720703 0.0
10.589255332946777 23.552879333496094 0.0
10.203496932983398 23.93863868713379 0.0
8.333333015441895 24.142135620117188 0.0
6.666666507720947 24.142135620117188 0.0
5.0 24.142135620117188 0.0
3.3333332538604736 24.142135620117188 0.0
1.6666666269302368 24.142135620117188 0.0
9.712211608886719 24.142135620117188 0.0
9.166666984558105 24.142135620117188 0.0
8.621122360229492 24.142135620117188 0.0
8.045544624328613 24.142135620117188 0.0
7.5 24.142135620117188 0.0
6.954455375671387 24.142135620117188 0.0
6.378878116607666 24.142135620117188 0.0
5.833333492279053 24.142135620117188 0.0
5.287788391113281 24.142135620117188 0.0
4.712211608886719 24.142135620117188 0.0
4.166666507720947 24.142135620117188 0.0
3.621121883392334 24.142135620117188 0.0
3.0455446243286133 24.142135620117188 0.0
2.5 24.142135620117188 0.0
1.9544552564620972 24.142135620117188 0.0
1.378878116607666 24.142135620117188 0.0
0.8333333134651184 24.142135620117188 0.0
0.28778859972953796 24.142135620117188 0.0
-1.1785112619400024 22.963624954223633 0.0
-2.357022523880005 21.785112380981445 0.0
-3.535533905029297 20.60660171508789 0.0
-4.71404504776001 19.428091049194336 0.0
-5.892556667327881 18.24957847595215 0.0
-0.2034972757101059 23.93863868713379 0.0
-0.5892556309700012 23.552879333496094 0.0
-0.9750140309333801 23.16712188720703 0.0
-1.3820085525512695 22.7601261138916 0.0
-1.7677669525146484 22.37436866760254 0.0
-2.1535253524780273 21.988611221313477 0.0
-2.5605199337005615 21.581615447998047 0.0
-2.9462783336639404 21.195858001708984 0.0
-3.3320367336273193 20.81009864807129 0.0
-3.7390310764312744 20.403104782104492 0.0
-4.124789714813232 20.017345428466797 0.0
-4.510548114776611 19.631587982177734 0.0
-4.917542457580566 19.224592208862305 0.0
-5.303300857543945 18.838834762573242 0.0
-5.689059257507324 18.45307731628418 0.0
-6.096053600311279 18.04608154296875 0.0
-6.481812000274658 17.660324096679688 0.0
-6.867570400238037 17.274564743041992 0.0
-7.071067810058594 15.404400825500488 0.0
-7.071067810058594 13.7377347946167 0.0
-7.071067810058594 12.071067810058594 0.0
-7.071067810058594 10.404400825500488 0.0
-7.071067810058594 8.7377347946167 0.0
-7.071067810058594 16.783279418945312 0.0
-7.071067810058594 16.237733840942383 0.0
-7.071067810058594 15.692190170288086 0.0
-7.071067810058594 15.116612434387207 0.0
-7.071067810058594 14.571067810058594 0.0
-7.071067810058594 14.02552318572998 0.0
-7.071067810058594 13.449945449829102 0.0
-7.071067810058594 12.904400825500488 0.0
-7.071067810058594 12.358856201171875 0.0
-7.071067810058594 11.783279418945312 0.0
-7.071067810058594 11.2377347946167 0.0
-7.071067810058594 10.692190170288086 0.0
-7.071067810058594 10.116612434387207 0.0
-7.071067810058594 9.571067810058594 0.0
-7.071067810058594 9.02552318572998 0.0
-7.071067810058594 8.449945449829102 0.0
-7.071067810058594 7.9044013023376465 0.0
-7.071067810058594 7.358856201171875 0.0
-5.892556667327881 5.892556667327881 0.0
-4.71404504776001 4.71404504776001 0.0
-3.535533905029297 3.535533905029297 0.0
-2.357022523880005 2.357022523880005 0.0
-1.1785112619400024 1.1785112619400024 0.0
-6.867570400238037 6.867570400238037 0.0
-6.481812000274658 6.481812000274658 0.0
-6.096053600311279 6.096053600311279 0.0
-5.689059257507324 5.689059257507324 0.0
-5.303300857543945 5.303300857543945 0.0
-4.917542457580566 4.917542457580566 0.0
-4.510548114776611 4.510548114776611 0.0
-4.124789714813232 4.124789714813232 0.0
-3.7390310764312744 3.7390310764312744 0.0
-3.3320367336273193 3.3320367336273193 0.0
-2.9462783336639404 2.9462783336639404 0.0
-2.5605199337005615 2.5605199337005615 0.0
-2.1535253524780273 2.1535253524780273 0.0
-1.7677669525146484 1.7677669525146484 0.0
-1.3820085525512695 1.3820085525512695 0.0
-0.9750140309333801 0.9750140309333801 0.0
-0.5892556309700012 0.5892556309700012 0.0
-0.2034972757101059 0.2034972757101059 0.0
12.743515014648438 4.829250812530518 0.0
12.133464813232422 19.767330169677734 0.0
-2.1284072399139404 4.035983085632324 0.0
-2.9127538204193115 19.212942123413086 0.0
5.582503318786621 1.48063325881958 0.0
3.500352144241333 22.799793243408203 0.0
-5.558978080749512 11.571152687072754 0.0
15.704985618591309 13.548174858093262 0.0
-0.5009244084358215 21.035879135131836 0.0
14.518613815307617 17.45484161376953 0.0
10.442709922790527 3.0516018867492676 0.0
2.405477285385132 1.491258144378662 0.0
-5.130236625671387 14.547630310058594 0.0
15.5697603225708 10.185420989990234 0.0
6.820529460906982 22.60530662536621 0.0
-5.251149654388428 16.908973693847656 0.0
-4.298891067504883 15.830798149108887 0.0
-4.129337310791016 14.042020797729492 0.0
-3.0786850452423096 14.907145500183105 0.0
-2.7264785766601562 13.198193550109863 0.0
-1.211036205291748 13.71519660949707 0.0
-0.9892262816429138 12.053621292114258 0.0
0.4203289747238159 12.419402122497559 0.0
0.4991082549095154 11.278190612792969 0.0
1.796902060508728 12.623595237731934 0.0
1.8989112377166748 10.912988662719727 0.0
3.747720956802368 11.756390571594238 0.0
3.2100062370300293 13.127394676208496 0.0
5.228888034820557 12.551981925964355 0.0
4.506756782531738 10.454473495483398 0.0
5.95164155960083 11.292462348937988 0.0
4.626242160797119 13.890426635742188 0.0
5.229078769683838 9.156611442565918 0.0
6.6588921546936035 9.988450050354004 0.0
7.244854927062988 12.141315460205078 0.0
3.8229434490203857 8.370821952819824 0.0
2.730743885040283 14.390069961547852 0.0
4.058218479156494 15.221583366394043 0.0
5.795979976654053 7.727377891540527 0.0
8.060077667236328 10.8720064163208 0.0
8.198689460754395 13.189714431762695 0.0
3.5000712871551514 16.461767196655273 0.0
8.711190223693848 9.44066047668457 0.0
4.481800079345703 17.04467010498047 0.0
4.258881568908691 7.001197814941406 0.0
0.6789055466651917 9.527349472045898 0.0
10.120930671691895 10.037755966186523 0.0
5.560701847076416 16.308917999267578 0.0
3.0778703689575195 17.795116424560547 0.0
1.5853314399719238 16.990663528442383 0.0
6.429362773895264 5.983057022094727 0.0
6.000192642211914 18.128557205200195 0.0
7.399143695831299 16.35959243774414 0.0
10.31447982788086 8.825214385986328 0.0
4.570639133453369 5.443624019622803 0.0
2.4995176792144775 6.552337646484375 0.0
7.547624111175537 17.98641586303711 0.0
9.350571632385254 17.912689208984375 0.0
[...]
POINT_DATA 3345
SCALARS displacement float 1
LOOKUP_TABLE default
10.441205024719238
10.253677368164062
18.398094177246094
21.417911529541016
29.693864822387695
29.65835189819336
22.52114486694336
18.849430084228516
10.0
10.0
10.0
10.0
10.0
10.0
10.0
10.0
10.0
10.0
10.0
10.0
10.0
10.0
10.0
10.0
10.0
10.0
10.0
10.0
10.0
10.0
10.0
13.579813003540039
15.519200325012207
16.442813873291016
17.239912033081055
17.898361206054688
10.833765983581543
11.95195484161377
12.978983879089355
14.076711654663086
14.7291898727417
15.270811080932617
15.66910457611084
15.972386360168457
16.279006958007812
16.590681076049805
16.855815887451172
17.108938217163086
17.378591537475586
17.611215591430664
17.80950927734375
18.041444778442383
18.2584228515625
18.379085540771484
18.818876266479492
19.29743194580078
19.815061569213867
20.34314727783203
20.857177734375
18.41486358642578
18.520130157470703
18.7031307220459
18.88692855834961
19.03604507446289
19.203346252441406
19.383085250854492
19.54965591430664
19.721298217773438
19.909778594970703
20.0832576751709
20.253026962280273
20.443965911865234
20.619760513305664
20.780200958251953
20.977558135986328
21.190645217895508
21.362627029418945
22.020998001098633
22.790903091430664
23.810443878173828
25.070240020751953
26.61897087097168
21.473482131958008
21.64925193786621
21.879352569580078
22.130569458007812
22.36256217956543
22.630008697509766
22.95765495300293
23.282636642456055
23.62557029724121
24.009254455566406
24.409671783447266
24.834897994995117
25.331615447998047
25.83462905883789
26.349397659301758
27.10215187072754
28.145353317260742
29.252302169799805
30.0
30.0
30.0
30.0
30.0
30.0
30.0
30.0
30.0
30.0
30.0
30.0
30.0
30.0
30.0
30.0
30.0
30.0
30.0
30.0
30.0
30.0
30.0
26.933929443359375
25.0565242767334
24.08542823791504
23.336864471435547
22.796512603759766
29.23290252685547
28.267719268798828
27.363380432128906
26.533706665039062
25.865753173828125
25.306236267089844
24.889841079711914
24.56218719482422
24.244495391845703
23.95153045654297
23.70059585571289
23.459678649902344
23.229604721069336
23.04197883605957
22.87480354309082
22.72266387939453
22.60663604736328
22.534500122070312
21.89848518371582
20.964189529418945
20.33213233947754
19.70377540588379
19.152023315429688
22.4897403717041
22.32417106628418
22.060026168823242
21.7313232421875
21.414630889892578
21.110328674316406
20.868467330932617
20.66379737854004
20.448162078857422
20.224855422973633
20.019927978515625
19.81361198425293
19.597675323486328
19.40782928466797
19.234079360961914
19.071964263916016
18.94319725036621
18.86347007751465
18.168325424194336
16.857961654663086
15.878212928771973
14.72152042388916
13.483203887939453
18.821392059326172
18.65786361694336
18.366329193115234
17.948118209838867
17.496856689453125
17.056493759155273
16.730859756469727
16.426532745361328
16.07559585571289
15.729613304138184
15.397379875183105
14.994017601013184
14.575506210327148
14.278979301452637
13.852428436279297
12.907951354980469
11.988663673400879
11.008427619934082
16.716543197631836
24.005834579467773
15.733141899108887
23.729860305786133
11.80445671081543
28.38645362854004
20.13966178894043
20.286174774169922
25.797832489013672
22.03915786743164
14.636661529541016
11.564910888671875
21.542766571044922
19.135719299316406
28.074626922607422
22.444278717041016
22.082353591918945
21.259849548339844
21.695655822753906
20.903902053833008
21.22751808166504
20.393688201904297
20.72921371459961
20.010644912719727
20.64789390563965
19.62213897705078
20.037456512451172
20.91814613342285
20.418624877929688
19.18320083618164
19.631010055541992
21.251564025878906
18.333356857299805
18.806655883789062
20.15377426147461
17.951274871826172
21.663301467895508
22.137231826782227
17.336881637573242
19.321062088012695
20.699417114257812
22.87213706970215
18.48084831237793
23.282787322998047
16.965389251708984
19.053207397460938
18.982040405273438
22.6352596282959
23.830215454101562
23.279680252075195
16.11536407470703
23.862953186035156
22.65533447265625
18.304950714111328
15.576508522033691
16.659997940063477
23.70295524597168
23.328622817993164
19.098249435424805
19.908166885375977
25.040908813476562
20.11747932434082
24.278474807739258
23.488468170166016
24.408706665039062
17.686965942382812
17.274789810180664
16.3095760345459
22.310224533081055
22.569162368774414
21.821577072143555
14.551566123962402
15.28955078125
16.206525802612305
25.18800163269043
21.52205467224121
20.710939407348633
21.14609146118164
22.369081497192383
21.12125587463379
18.283958435058594
18.288511276245117
17.526222229003906
21.69285011291504
26.078838348388672
14.982231140136719
20.47423553466797
16.09854507446289
15.305112838745117
19.2564697265625
18.769018173217773
18.405885696411133
22.57962417602539
15.52058219909668
13.977165222167969
27.375429153442383
18.395273208618164
27.868545532226562
12.317076683044434
18.8238582611084
21.425132751464844
20.871870040893555
25.726835250854492
24.904489517211914
26.33384895324707
16.9533634185791
26.941423416137695
28.261539459228516
26.636993408203125
20.80974769592285
17.57724380493164
23.025054931640625
11.902294158935547
13.232125282287598
13.018065452575684
13.618023872375488
15.809954643249512
16.620058059692383
24.649124145507812
25.152921676635742
24.11768913269043
22.83372688293457
22.85384178161621
23.715404510498047
11.77443790435791
13.633152961730957
19.475563049316406
20.055818557739258
19.256792068481445
19.735349655151367
19.735919952392578
18.151216506958008
19.978862762451172
24.075796127319336
17.913320541381836
16.958894729614258
15.596375465393066
20.797910690307617
21.60934066772461
21.767292022705078
21.449460983276367
21.014142990112305
18.759822845458984
17.704879760742188
17.50434112548828
16.736434936523438
21.288053512573242
22.314292907714844
19.626354217529297
19.192323684692383
11.9945068359375
16.468929290771484
20.6835880279541
28.46890640258789
22.143587112426758
17.911096572875977
22.654010772705078
21.803564071655273
17.750179290771484
18.543689727783203
14.755199432373047
23.289731979370117
15.486798286437988
24.732540130615234
26.61245346069336
14.288461685180664
19.130847930908203
19.839696884155273
20.809803009033203
21.321741104125977
14.921006202697754
13.382322311401367
25.309917449951172
20.31052589416504
25.42223358154297
18.591157913208008
27.226533889770508
22.682456970214844
14.199434280395508
16.16988182067871
17.815872192382812
17.70325469970703
17.619497299194336
17.745864868164062
18.018972396850586
18.263023376464844
18.413440704345703
18.461589813232422
18.518611907958984
18.45821762084961
18.26911163330078
18.048969268798828
17.96390724182129
17.84942054748535
17.772438049316406
18.040842056274414
18.287046432495117
18.34187126159668
18.413991928100586
18.20378303527832
18.106128692626953
23.4599609375
23.09027862548828
22.759397506713867
22.64183807373047
22.733524322509766
22.80757713317871
23.043926239013672
23.41514778137207
23.801620483398438
23.97787857055664
23.891332626342773
23.778627395629883
23.55240249633789
23.167924880981445
22.818639755249023
22.918663024902344
23.001874923706055
23.374847412109375
23.764307022094727
23.67502212524414
23.284555435180664
12.458185195922852
12.809739112854004
13.263640403747559
13.837752342224121
14.205700874328613
14.505945205688477
14.478878021240234
14.293256759643555
14.209582328796387
13.966507911682129
13.462396621704102
12.804591178894043
12.892788887023926
13.164855003356934
13.564803123474121
14.001649856567383
14.335932731628418
14.113384246826172
13.995769500732422
13.520766258239746
13.704085350036621
21.846729278564453
21.74542808532715
21.624448776245117
21.620296478271484
21.777910232543945
21.958885192871094
22.160802841186523
22.28244400024414
22.39128303527832
22.310375213623047
22.124486923217773
21.97367286682129
21.92420768737793
21.82411003112793
21.700654983520508
21.85987091064453
22.045923233032227
22.173017501831055
22.271915435791016
22.082399368286133
21.986181259155273
15.5384521484375
15.20927619934082
14.979365348815918
14.85469913482666
14.598456382751465
14.213936805725098
14.237584114074707
14.69029426574707
15.177528381347656
15.598864555358887
15.689179420471191
15.741423606872559
15.522065162658691
15.170608520507812
14.924736976623535
14.727133750915527
14.424617767333984
14.838106155395508
15.313455581665039
15.454042434692383
15.047964096069336
18.626428604125977
18.804784774780273
19.00564193725586
19.170616149902344
19.220918655395508
19.2491397857666
19.144683837890625
18.9499568939209
18.8067569732666
18.74635124206543
18.67129135131836
18.58258819580078
18.675212860107422
18.85701560974121
19.05666160583496
19.114185333251953
19.140634536743164
18.953933715820312
18.805152893066406
18.755138397216797
18.92502212524414
23.16210174560547
22.873319625854492
22.64133071899414
22.580711364746094
22.59612464904785
22.591751098632812
23.655019760131836
23.52800941467285
23.401140213012695
23.243906021118164
22.957935333251953
22.702472686767578
22.759292602539062
22.768718719482422
23.10544204711914
23.468162536621094
23.378231048583984
23.06958770751953
16.9273681640625
16.851470947265625
16.763456344604492
16.869197845458984
17.15142822265625
17.4279842376709
17.72907829284668
17.42264747619629
17.121461868286133
17.07903480529785
16.998170852661133
16.913137435913086
17.194355010986328
17.472700119018555
17.560087203979492
17.664472579956055
17.371864318847656
17.28006362915039
22.42655372619629
22.156558990478516
21.913488388061523
21.863609313964844
21.9566707611084
22.020357131958008
22.179487228393555
22.433414459228516
22.70256805419922
22.49081802368164
22.222734451293945
21.9793758392334
22.078847885131836
22.149951934814453
22.40360450744629
22.668148040771484
22.5898380279541
22.326627731323242
21.903470993041992
21.69680404663086
21.518238067626953
21.414880752563477
21.415502548217773
21.417612075805664
22.04525375366211
22.06966209411621
22.06163787841797
21.924327850341797
21.70565414428711
21.51449966430664
21.507183074951172
21.4908390045166
21.673906326293945
21.904102325439453
21.93032455444336
21.70154571533203
26.779422760009766
26.449655532836914
26.05961036682129
25.92845916748047
26.22667694091797
26.506582260131836
26.73309326171875
27.072982788085938
27.533681869506836
27.673677444458008
27.399389266967773
27.103485107421875
26.929895401000977
26.57372283935547
26.175752639770508
26.42412567138672
26.6538028717041
27.006620407104492
27.435251235961914
27.197818756103516
26.806396484375
18.100509643554688
17.97982406616211
17.850614547729492
17.95590591430664
18.236251831054688
18.471303939819336
18.63345718383789
18.714920043945312
18.790956497192383
18.674312591552734
18.44866180419922
18.259815216064453
18.201873779296875
18.097238540649414
17.9957218170166
18.262971878051758
18.5081729888916
18.5810546875
18.64743423461914
18.40981674194336
18.33401107788086
24.005226135253906
24.42391586303711
24.765155792236328
24.79649543762207
24.596630096435547
24.445608139038086
24.322420120239258
23.998685836791992
23.576740264892578
23.62514305114746
23.734312057495117
23.88018226623535
24.287677764892578
24.634279251098633
24.448184967041016
24.3363094329834
24.02178192138672
24.11668586730957
24.42183494567871
24.689828872680664
24.973276138305664
24.95181655883789
24.610628128051758
24.286340713500977
24.01200294494629
23.80853271484375
23.59929656982422
23.6164493560791
23.864469528198242
24.125877380371094
24.27120590209961
24.535686492919922
24.804269790649414
24.48451805114746
24.17287254333496
23.95610237121582
23.734760284423828
23.997339248657227
24.242753982543945
24.218477249145508
24.656150817871094
25.137269973754883
25.413766860961914
25.24396514892578
25.014448165893555
24.029407501220703
24.117155075073242
24.194177627563477
24.634601593017578
25.12201499938965
25.005470275878906
24.84180450439453
24.46303367614746
24.557357788085938
15.808938026428223
16.150936126708984
16.393573760986328
16.486085891723633
16.538164138793945
16.59711456298828
16.47074317932129
16.188312530517578
15.892013549804688
15.812829971313477
16.12548828125
16.374521255493164
16.39186668395996
16.44135856628418
16.153879165649414
15.873180389404297
15.842301368713379
16.119888305664062
13.438941955566406
13.83992862701416
14.272220611572266
14.499399185180664
14.422883033752441
14.340750694274902
14.003299713134766
13.507355690002441
13.127433776855469
13.035562515258789
13.087586402893066
13.166460037231445
13.386724472045898
13.80489444732666
14.249811172485352
14.171005249023438
14.068414688110352
13.59217643737793
13.197603225708008
13.295903205871582
13.71466064453125
26.403541564941406
26.51193618774414
26.598676681518555
26.379119873046875
25.932069778442383
25.515817642211914
25.255041122436523
25.171157836914062
25.08361053466797
25.255796432495117
25.665407180786133
26.092870712280273
26.160911560058594
26.267589569091797
26.34903907775879
25.89984703063965
25.475034713745117
25.393573760986328
25.304412841796875
25.724382400512695
25.821775436401367
19.247360229492188
19.444242477416992
19.634801864624023
19.753009796142578
19.788869857788086
19.823402404785156
19.730506896972656
19.529888153076172
19.343809127807617
19.271196365356445
19.46255111694336
19.652925491333008
19.687335968017578
19.717729568481445
19.52281951904297
19.3394718170166
19.313566207885742
19.497276306152344
15.194314002990723
15.086732864379883
15.01928997039795
14.714536666870117
14.192110061645508
13.661026954650879
13.418583869934082
13.490859031677246
13.575600624084473
13.973183631896973
14.4937744140625
14.994287490844727
14.930386543273926
14.82536792755127
14.74786376953125
14.225958824157715
13.696206092834473
13.773219108581543
13.88088607788086
14.420756340026855
14.307791709899902
20.912811279296875
21.109384536743164
21.31191062927246
21.434009552001953
21.401912689208984
21.34636688232422
21.27406883239746
21.13686752319336
20.965871810913086
20.872175216674805
20.850215911865234
20.82494354248047
20.924036026000977
21.1145076751709
21.31475067138672
21.298870086669922
21.274518966674805
21.12669563293457
20.960561752319336
20.943239212036133
21.119714736938477
19.83938980102539
20.029691696166992
20.214921951293945
20.33291244506836
20.382699966430664
20.441476821899414
20.36411476135254
20.15660858154297
19.948740005493164
19.92987823486328
19.892601013183594
19.856243133544922
20.04843521118164
20.2360782623291
20.282302856445312
20.33513832092285
20.132753372192383
20.088695526123047
20.080663681030273
20.05367088317871
20.051380157470703
19.94389533996582
19.696577072143555
19.419525146484375
19.237491607666016
19.220487594604492
19.204736709594727
19.36829948425293
19.67155647277832
19.96317481994629
19.94440460205078
19.927030563354492
19.932449340820312
19.681045532226562
19.39967918395996
19.37806510925293
19.367883682250977
19.66523551940918
19.66474151611328
29.67498779296875
29.103837966918945
28.551143646240234
28.240680694580078
28.184663772583008
28.11454963684082
28.4355525970459
29.067291259765625
29.68021011352539
29.682790756225586
29.101552963256836
28.535057067871094
28.496442794799805
28.453210830688477
29.073183059692383
29.681039810180664
29.684040069580078
29.0888729095459
20.297348022460938
20.232900619506836
20.170330047607422
20.252683639526367
20.464323043823242
20.681211471557617
20.836605072021484
20.888038635253906
20.93970489501953
20.836009979248047
20.628562927246094
20.413057327270508
20.348114013671875
20.28476333618164
20.499786376953125
20.7186336517334
20.778051376342773
20.56468391418457
27.580116271972656
27.827539443969727
28.003339767456055
27.717344284057617
27.13719940185547
26.607454299926758
26.2423038482666
26.055803298950195
25.847023010253906
26.020931243896484
26.526466369628906
27.05084991455078
27.231548309326172
27.485511779785156
27.661073684692383
27.063709259033203
26.51845359802246
26.334001541137695
26.129953384399414
26.66262435913086
26.886756896972656
20.78603744506836
20.606847763061523
20.4152774810791
20.30220603942871
20.29185676574707
20.28721809387207
20.382551193237305
20.558177947998047
20.725732803344727
20.735233306884766
20.755470275878906
20.775924682617188
20.59369659423828
20.404834747314453
20.391061782836914
20.383691787719727
20.562284469604492
20.5751953125
21.472017288208008
21.368621826171875
21.287641525268555
21.289106369018555
21.40992546081543
21.58502769470215
21.761581420898438
21.878568649291992
22.002214431762695
21.562185287475586
21.4569091796875
21.351858139038086
21.491708755493164
21.661409378051758
21.790485382080078
21.90939712524414
21.731029510498047
21.621925354003906
20.81351661682129
21.04111099243164
21.211719512939453
21.42300796508789
21.196866989135742
20.957189559936523
20.771739959716797
20.722335815429688
20.69231605529785
20.820802688598633
21.04308319091797
21.21927833557129
21.274274826049805
21.36319923400879
21.1460018157959
20.90790367126465
20.85011863708496
21.076236724853516
20.825252532958984
20.74114418029785
20.69698715209961
20.58662223815918
20.380653381347656
20.164039611816406
20.260536193847656
20.51392936706543
20.763269424438477
20.710582733154297
20.637216567993164
20.59673309326172
20.38983154296875
20.1691951751709
20.184825897216797
20.224157333374023
20.475814819335938
20.420812606811523
27.97651481628418
27.44786834716797
26.923433303833008
26.876256942749023
26.78316879272461
26.673269271850586
27.20686149597168
27.783756256103516
27.876583099365234
27.94634246826172
27.40503692626953
27.31597900390625
21.07377815246582
21.337539672851562
21.5742130279541
20.829744338989258
20.88461685180664
20.991090774536133
21.25200653076172
21.474872589111328
21.319503784179688
21.224529266357422
21.053728103637695
21.123788833618164
26.879606246948242
26.785011291503906
26.690998077392578
28.282140731811523
28.32496452331543
28.36567497253418
28.164119720458984
27.714595794677734
27.23244285583496
27.162059783935547
27.058374404907227
26.967859268188477
27.487993240356445
28.00701332092285
28.06447982788086
28.126272201538086
27.658218383789062
27.567148208618164
23.96790885925293
23.698911666870117
23.436634063720703
23.21474838256836
23.068599700927734
22.9141845703125
22.92493438720703
23.125097274780273
23.35483169555664
23.46769142150879
23.671743392944336
23.867801666259766
23.603822708129883
23.34771156311035
23.185768127441406
23.017690658569336
23.231483459472656
23.421463012695312
21.186695098876953
21.08590316772461
20.976367950439453
20.176836013793945
20.267372131347656
20.349666595458984
20.552248001098633
20.821287155151367
21.085554122924805
21.039636611938477
20.940406799316406
20.82994842529297
20.5679988861084
20.311498641967773
20.405019760131836
20.49758529663086
20.769474029541016
20.670230865478516
20.47876739501953
20.59642791748047
20.68669891357422
20.900699615478516
21.204500198364258
21.513839721679688
21.60330581665039
21.441890716552734
21.292299270629883
20.62147331237793
20.740299224853516
20.845243453979492
21.142595291137695
21.440921783447266
21.297792434692383
21.15800666809082
20.891864776611328
21.01999855041504
20.54582405090332
20.26797103881836
20.066293716430664
19.975971221923828
19.857816696166992
19.710172653198242
19.81812286376953
20.15715789794922
20.479833602905273
20.657997131347656
20.68477439880371
20.714366912841797
20.54983901977539
20.276607513427734
20.061771392822266
19.989370346069336
19.88064956665039
20.19269371032715
20.4987735748291
20.530691146850586
20.250036239624023
19.69019317626953
19.81856346130371
19.957792282104492
20.20256805419922
20.48872947692871
20.764507293701172
20.84584617614746
20.747037887573242
20.677291870117188
19.87236785888672
19.988086700439453
20.121288299560547
20.419479370117188
20.702865600585938
20.600156784057617
20.517919540405273
20.202951431274414
20.302221298217773
20.101757049560547
20.225658416748047
20.351768493652344
20.559356689453125
20.826269149780273
21.099393844604492
21.184566497802734
21.071149826049805
20.968976974487305
20.259140014648438
20.375171661376953
20.49553108215332
20.76707649230957
21.040016174316406
20.92875099182129